  VARIABLES= "X", "Y"
  ZONE T="DEFORMED", I=         449 , J=         129 , DATAPACKING=POINT
   501.00000000001802        0.0000000000000000     
   450.64677006271501        0.0000000000000000     
   405.36424519664803        0.0000000000000000     
   364.64179182475499        0.0000000000000000     
   328.02019853836498        0.0000000000000000     
   295.08649774715900        0.0000000000000000     
   265.46930880284901        0.0000000000000000     
   238.83465008277000        0.0000000000000000     
   214.88217280786799        0.0000000000000000     
   193.34177412529601        0.0000000000000000     
   173.97055126267099        0.0000000000000000     
   156.55006240713601        0.0000000000000000     
   140.88386342125099        0.0000000000000000     
   126.79529261817900        0.0000000000000000     
   114.12547861594200        0.0000000000000000     
   102.73154880609501        0.0000000000000000     
   92.485018234391106        0.0000000000000000     
   83.270340725483706        0.0000000000000000     
   74.983605913249306        0.0000000000000000     
   67.531367483644303        0.0000000000000000     
   60.829589416643898        0.0000000000000000     
   54.802698344439001        0.0000000000000000     
   49.382731339700499        0.0000000000000000     
   44.508569523846099        0.0000000000000000     
   40.125248853007797        0.0000000000000000     
   36.183340309696199        0.0000000000000000     
   32.638392510825597        0.0000000000000000     
   29.450430446601700        0.0000000000000000     
   26.583504697746100        0.0000000000000000     
   24.005286047753501        0.0000000000000000     
   21.686700918779302        0.0000000000000000     
   19.601603520110100        0.0000000000000000     
   17.726481012160200        0.0000000000000000     
   16.040188361244098        0.0000000000000000     
   14.523709895182300        0.0000000000000000     
   13.159944870896901        0.0000000000000000     
   11.933514635923499        0.0000000000000000     
   10.830589209276001        0.0000000000000000     
   9.8387313260821507        0.0000000000000000     
   8.9467561873422596        0.0000000000000000     
   8.1446053332620796        0.0000000000000000     
   7.4232332178794103        0.0000000000000000     
   6.7745052059291000        0.0000000000000000     
   6.1911058416970199        0.0000000000000000     
   5.6664563554459697        0.0000000000000000     
   5.1946404771654002        0.0000000000000000     
   4.7703377210751201        0.0000000000000000     
   4.3887633885581696        0.0000000000000000     
   4.0456146129589499        0.0000000000000000     
   3.7370218378146300        0.0000000000000000     
   3.4595051813586100        0.0000000000000000     
   3.2099351952352801        0.0000000000000000     
   2.9854975749172801        0.0000000000000000     
   2.7836614238782000        0.0000000000000000     
   2.6021507136481201        0.0000000000000000     
   2.4389186179179099        0.0000000000000000     
   2.2921244312679798        0.0000000000000000     
   2.1601128122428199        0.0000000000000000     
   2.0413951167035300        0.0000000000000000     
   1.9346326109617100        0.0000000000000000     
   1.8386213753957501        0.0000000000000000     
   1.7522787283133201        0.0000000000000000     
   1.6746310169672800        0.0000000000000000     
   1.6048026380490199        0.0000000000000000     
   1.5420061638474500        0.0000000000000000     
   1.4855334627302801        0.0000000000000000     
   1.4347477138165201        0.0000000000000000     
   1.3890762257929701        0.0000000000000000     
   1.3480039788949600        0.0000000000000000     
   1.3110678172270800        0.0000000000000000     
   1.2778512259326300        0.0000000000000000     
   1.2479796343161700        0.0000000000000000     
   1.2211161919541600        0.0000000000000000     
   1.1969579701626201        0.0000000000000000     
   1.1752325459871100        0.0000000000000000     
   1.1556949301940700        0.0000000000000000     
   1.1381248046217101        0.0000000000000000     
   1.1223240377370300        0.0000000000000000     
   1.1081144503828699        0.0000000000000000     
   1.0953358065202401        0.0000000000000000     
   1.0838440063083301        0.0000000000000000     
   1.0735094611460900        0.0000000000000000     
   1.0642156323515699        0.0000000000000000     
   1.0558577170001000        0.0000000000000000     
   1.0483414661021400        0.0000000000000000     
   1.0415821217937400        0.0000000000000000     
   1.0355034615547700        0.0000000000000000     
   1.0300369386769701        0.0000000000000000     
   1.0251209092891200        0.0000000000000000     
   1.0206999372228800        0.0000000000000000     
   1.0167241688805000        0.0000000000000000     
   1.0131487710549800        0.0000000000000000     
   1.0099334253633101        0.0000000000000000     
   1.0070418735916200        0.0000000000000000     
   1.0044415088252201        0.0000000000000000     
   1.0021030077530599        0.0000000000000000     
   1.0000000000000000        0.0000000000000000     
  0.99791324229627298       -2.2090516447588308E-005
  0.99567380329074806       -4.6002769866188226E-005
  0.99327129541645975       -7.1902531554279532E-005
  0.99069474675638369       -9.9967126951314112E-005
  0.98793258671346829       -1.3039170063213249E-004
  0.98497263534975277       -1.6339128383392331E-004
  0.98180209648830019       -1.9920312394043843E-004
  0.97840755535217672       -2.3808930593565867E-004
  0.97477498159721865       -2.8033969709897544E-004
  0.97088973867528927       -3.2627524662622205E-004
  0.96673660055370647       -3.7625167085564987E-004
  0.96229977689113266       -4.3066355207352792E-004
  0.95756294784246332       -4.8994887363679792E-004
  0.95250930972366632       -5.5459400569271480E-004
  0.94712163280803841       -6.2513914316787017E-004
  0.94138233254492387       -7.0218417984670503E-004
  0.93527355547665969       -7.8639497820386789E-004
  0.92877728108623059       -8.7850996277850403E-004
  0.92187544070871108       -9.7934692432419777E-004
  0.91455005449270421       -1.0898098714288429E-003
  0.90678338718946350       -1.2108957050148816E-003
  0.89855812326919438       -1.3437004187653451E-003
  0.88985756150025286       -1.4894244456277253E-003
  0.88066582869693599       -1.6493766781824262E-003
  0.87096811181036793       -1.8249765921456891E-003
  0.86075090693250855       -2.0177538017312757E-003
  0.85000228309154202       -2.2293442798914202E-003
  0.83871215796187837       -2.4614823941745308E-003
  0.82687258179769862       -2.7159878513904404E-003
  0.81447802506174416       -2.9947466243829789E-003
  0.80152566437566330       -3.2996849669876087E-003
  0.78801566062116646       -3.6327357235635717E-003
  0.77395142229940594       -3.9957963220714245E-003
  0.75933984667175425       -4.3906781158532839E-003
  0.74419153079969957       -4.8190471159212239E-003
  0.72852094444662852       -5.2823566312769424E-003
  0.71234655691763726       -5.7817728996961554E-003
  0.69569091037430009       -6.3180954221151997E-003
  0.67858063296291427       -6.8916743762336835E-003
  0.66104638626918399       -7.5023281315514459E-003
  0.64312274314211360       -8.1492644619564070E-003
  0.62484799377379152       -8.8310094905954609E-003
  0.60626388003195097       -9.5453486419489336E-003
  0.58741526031757163       -1.0289283862965536E-002
  0.56834970956747599       -1.1059011068123417E-002
  0.54911706132229721       -1.1849921144432791E-002
  0.52976890089465645       -1.2656626932283671E-002
  0.51035802049950174       -1.3473017416582307E-002
  0.49093784862772027       -1.4292338990717433E-002
  0.47156186687607077       -1.5107302188562523E-002
  0.45228302784391528       -1.5910210828094323E-002
  0.43315318754353477       -1.6693109190998874E-002
  0.41422256507414640       -1.7447941784205639E-002
  0.39561225625486207       -1.8169436848126233E-002
  0.37752673160792161       -1.8912982603872017E-002
  0.35977577140438960       -1.9693916269442231E-002
  0.34239568912760349       -2.0499809606992804E-002
  0.32541933056800532       -2.1318350761376503E-002
  0.30887592883397269       -2.2137577105178392E-002
  0.29279102025009007       -2.2946082651137928E-002
  0.27718641772289493       -2.3733195151455701E-002
  0.26208023707117234       -2.4489119794006677E-002
  0.24748697102859987       -2.5205048148913119E-002
  0.23341760510850806       -2.5873232612213866E-002
  0.21987976923961441       -2.6487027959995399E-002
  0.20687791901894123       -2.7040902717448231E-002
  0.19441354052626883       -2.7530423843487577E-002
  0.18248537288439326       -2.7952218735733059E-002
  0.17108964310318245       -2.8303918795647393E-002
  0.16022030816415631       -2.8584088796739578E-002
  0.14986929979074387       -2.8792146113014894E-002
  0.14002676785948365       -2.8928273538358345E-002
  0.13068131895845958       -2.8993329005103003E-002
  0.12182024711402714       -2.8988755034456595E-002
  0.11342975426091614       -2.8916490256338041E-002
  0.10549515852046769       -2.8778884851511900E-002
   9.8001088830932559E-002  -2.8578621314248990E-002
   9.0931664924532599E-002  -2.8318641524465005E-002
   8.4270662039518746E-002  -2.8002080762592307E-002
   7.8001660077097995E-002  -2.7632208999799287E-002
   7.2108177247766650E-002  -2.7212379553804469E-002
   6.6573788545912060E-002  -2.6745985015881879E-002
   6.1382229380071332E-002  -2.6236420197198969E-002
   5.6517485219196834E-002  -2.5687051771313092E-002
   5.1963867795212518E-002  -2.5101194192904352E-002
   4.7706078866407854E-002  -2.4482091472541934E-002
   4.3729262130989648E-002  -2.3832904320436402E-002
   4.0019044521046147E-002  -2.3156702257368440E-002
   3.6561567257409708E-002  -2.2456460180914205E-002
   3.3343507729804440E-002  -2.1735058984789536E-002
   3.0352092995448648E-002  -2.0995289824504552E-002
   2.7575104985876092E-002  -2.0239861452524904E-002
   2.5000878121036907E-002  -1.9471410118774915E-002
   2.2618290935312101E-002  -1.8692511822777699E-002
   2.0416749987712923E-002  -1.7905695655827846E-002
   1.8386167510704217E-002  -1.7113457619395197E-002
   1.6516934107179797E-002  -1.6318274288914286E-002
   1.4799887032481073E-002  -1.5522615336362754E-002
   1.3226267849359694E-002  -1.4728950135894911E-002
   1.1787689577460720E-002  -1.3939755943359855E-002
   1.0476083715879270E-002  -1.3157510869574153E-002
   9.2836695856124175E-003  -1.2384691384517796E-002
   8.2029026732483197E-003  -1.1623747950671314E-002
   7.2264464844130948E-003  -1.0877082523561258E-002
   6.3471453185736659E-003  -1.0147014129068632E-002
   5.5580062401039305E-003  -9.4357367456785156E-003
   4.8521983776296865E-003  -8.7452781354145654E-003
   4.2230591761982638E-003  -8.0774541915357573E-003
   3.6641167021240787E-003  -7.4338316881413574E-003
   3.1691186301711803E-003  -6.8156969617201319E-003
   2.7320661941595843E-003  -6.2240344275530778E-003
   2.3472517475344613E-003  -5.6595201431554427E-003
   2.0092921081905765E-003  -5.1225259424880583E-003
   1.7131561351438991E-003  -4.6131347695795820E-003
   1.4541847723655308E-003  -4.1311660846328341E-003
   1.2281010169277900E-003  -3.6762062736568472E-003
   1.0310116436546204E-003  -3.2476445938185959E-003
   8.5939950895301174E-004  -2.8447084148245008E-003
   7.1010934966489621E-004  -2.4664985534922166E-003
   5.8032796749469162E-004  -2.1120217270623751E-003
   4.6756083350388852E-004  -1.7802199761584060E-003
   3.6960639156712548E-004  -1.4699959383620410E-003
   2.8452954808841043E-004  -1.1802343328783970E-003
   2.1063524952347299E-004  -9.0981942585243196E-004
   1.4644300682880633E-004  -6.5764907275601351E-004
   9.0662889080354674E-005  -4.2264579994020081E-004
   4.2173170885141077E-005  -2.0376479204166863E-004
   0.0000000000000000        0.0000000000000000     
  -3.9441721996496657E-005   2.0431108086644504E-004
  -7.8864842778026209E-005   4.2500539171352804E-004
  -1.1775465144323540E-004   6.6338664074167138E-004
  -1.5547364935134038E-004   9.2085136512562557E-004
  -1.9124004297269229E-004   1.1988911453400658E-003
  -2.2410354334155027E-004   1.4990938605383582E-003
  -2.5291831985671889E-004   1.8231427183628458E-003
  -2.7631330374192265E-004   2.1728131044339736E-003
  -2.9266011660358105E-004   2.5499666140126036E-003
  -3.0003915763642609E-004   2.9565413704219700E-003
  -2.9620474045922394E-004   3.3945384763383341E-003
  -2.7855048767548172E-004   3.8660036666625336E-003
  -2.4407657367253013E-004   4.3730046701334034E-003
  -1.8936074268766968E-004   4.9176035926830463E-003
  -1.1053507055732944E-004   5.5018266761053735E-003
  -3.2708838603771277E-006   6.1276295176759003E-003
   1.3722681766319155E-004   6.7968639032949443E-003
   3.1621388391664179E-004   7.5112449958074194E-003
   5.3939082160816935E-004   8.2723244772466686E-003
   8.1287701591014044E-004   9.0814713109357501E-003
   1.1431769734958032E-003   9.9398600955048575E-003
   1.5371440984005822E-003   1.0848474116053868E-002
   2.0019452488616528E-003   1.1808118766641661E-002
   2.5450291837496404E-003   1.2819442367921421E-002
   3.1741067702315655E-003   1.3882970212461166E-002
   3.8971394823576525E-003   1.4999136385078961E-002
   4.7223439402471817E-003   1.6168322263665918E-002
   5.6582083341501239E-003   1.7390890478441362E-002
   6.7135146650844219E-003   1.8667207126972389E-002
   7.8973829338809861E-003   1.9997673405895089E-002
   9.2193044974973413E-003   2.1382727575228241E-002
   1.0689195405954404E-002   2.2822857900517895E-002
   1.2317437191166257E-002   2.4318591978417809E-002
   1.4114926697687141E-002   2.5870488924781217E-002
   1.6093118727976814E-002   2.7479119621284361E-002
   1.8264065475553551E-002   2.9145041523406863E-002
   2.0640451768602314E-002   3.0868768461653099E-002
   2.3235624507774218E-002   3.2650735256032647E-002
   2.6063614499010606E-002   3.4491256917419194E-002
   2.9139151657418063E-002   3.6390483996640875E-002
   3.2477671725052927E-002   3.8348353465752189E-002
   3.6095313348498602E-002   4.0364535169792257E-002
   4.0008904875552143E-002   4.2438374232859566E-002
   4.4235939564033849E-002   4.4568829467772596E-002
   4.8794537572637894E-002   4.6754407848977740E-002
   5.3703393670486113E-002   4.8993095587098606E-002
   5.8981708758536651E-002   5.1282286113756750E-002
   6.4649103838129190E-002   5.3618705796975932E-002
   7.0725514639358944E-002   5.5998338252040064E-002
   7.7231065553634223E-002   5.8416348561310505E-002
   8.4185921231753197E-002   6.0867008856327426E-002
   9.1610114788395466E-002   6.3343627202241987E-002
   9.9523351665697868E-002   6.5838481985204617E-002
  0.10794478867719687        6.8342764365965175E-002
  0.11689278833651442        7.0846531693748549E-002
  0.12638464922357434        7.3338675038729456E-002
  0.13643631394040612        7.5806904203745029E-002
  0.14706205714229567        7.8237753680621330E-002
  0.15827415715917756        8.0616612985972363E-002
  0.17008255580937676        8.2927784615095188E-002
  0.18249451218093718        8.5154572478426421E-002
  0.19551425727136076        8.7279403090592372E-002
  0.20914265746620561        8.9283980977560629E-002
  0.22337689576877995        9.1149478740637196E-002
  0.23821018043129213        9.2856760993038301E-002
  0.25363149107859562        9.4386639996558608E-002
  0.26962537251842905        9.5720159331568549E-002
  0.28617178611492988        9.6838900401517228E-002
  0.30324602782635329        9.7725305091093617E-002
  0.32081872077115869        9.8363006562126765E-002
  0.33885588847616649        9.8737159079185677E-002
  0.35731911283463841        9.8834757001617396E-002
  0.37616577832944043        9.8644932737217722E-002
  0.39534940135623797        9.8159223579440708E-002
  0.41459024766008162        9.7401819024474881E-002
  0.43399731174216122        9.6442596961630239E-002
  0.45359113448410471        9.5287468167922509E-002
  0.47331729498334124        9.3941191065158303E-002
  0.49312000991223970        9.2410265490472571E-002
  0.51294274793166217        9.0702836309875939E-002
  0.53272886029578559        8.8828565799675852E-002
  0.55242221307195682        8.6798478990341210E-002
  0.57196780636864808        8.4624786877122965E-002
  0.59131236648539243        8.2320692857158900E-002
  0.61040489795095099        7.9900187954896534E-002
  0.62919718393245450        7.7377840365732808E-002
  0.64764422540196231        7.4768584611873579E-002
  0.66570461164100392        7.2087515201658736E-002
  0.68334081702177762        6.9349689156346581E-002
  0.70051942142922585        6.6569941153325998E-002
  0.71721125405457475        6.3762714369225301E-002
  0.73339146249579157        6.0941909421194061E-002
  0.74903951107035249        5.8120753122736582E-002
  0.76413911389896572        5.5311688114409771E-002
  0.77867810962564210        5.2526283813107963E-002
  0.79264828557400746        4.9775168559702487E-002
  0.80604515969742263        4.7067982344380976E-002
  0.81886772890339976        4.4413349055215851E-002
  0.83111819222233330        4.1818866839964684E-002
  0.84280165693120557        3.9291114889337106E-002
  0.85392583515667997        3.6835674748463706E-002
  0.86450073774284952        3.4457164136446769E-002
  0.87453837131943601        3.2159281199693593E-002
  0.88405244360869206        2.9944857134025976E-002
  0.89305808108997309        2.7815915178897904E-002
  0.90157156225448953        2.5773734100815879E-002
  0.90961006884179252        2.3818914435496039E-002
  0.91719145668743784        2.1951445936069618E-002
  0.92433404712912481        2.0170774870630757E-002
  0.93105643933687732        1.8475870014202145E-002
  0.93737734343480639        1.6865286384281763E-002
  0.94331543389178207        1.5337225962289185E-002
  0.94888922233908957        1.3889594828023393E-002
  0.95411694874119979        1.2520056300967718E-002
  0.95901648968340469        1.1226079830613044E-002
  0.96360528243769539        1.0004985506694736E-002
  0.96790026341068158        8.8539841706165266E-003
  0.97191781957193069        7.7702131975530553E-003
  0.97567375147978330        6.7507680910365419E-003
  0.97918324657074529        5.7927300861590324E-003
  0.98246086144420175        4.8931899975174480E-003
  0.98552051195353929        4.0492685748796673E-003
  0.98837547000391979        3.2581336449144229E-003
  0.99103836604510420        2.5170143250034882E-003
  0.99352119634672231        1.8232125927407511E-003
  0.99583533423096393        1.1741124892771641E-003
  0.99799154452535499        5.6718722395377613E-004
   1.0000000000000000        0.0000000000000000     
   1.0021030077530599        0.0000000000000000     
   1.0044415088252201        0.0000000000000000     
   1.0070418735916200        0.0000000000000000     
   1.0099334253633101        0.0000000000000000     
   1.0131487710549800        0.0000000000000000     
   1.0167241688805000        0.0000000000000000     
   1.0206999372228800        0.0000000000000000     
   1.0251209092891200        0.0000000000000000     
   1.0300369386769701        0.0000000000000000     
   1.0355034615547700        0.0000000000000000     
   1.0415821217937400        0.0000000000000000     
   1.0483414661021400        0.0000000000000000     
   1.0558577170001000        0.0000000000000000     
   1.0642156323515699        0.0000000000000000     
   1.0735094611460900        0.0000000000000000     
   1.0838440063083301        0.0000000000000000     
   1.0953358065202401        0.0000000000000000     
   1.1081144503828699        0.0000000000000000     
   1.1223240377370300        0.0000000000000000     
   1.1381248046217101        0.0000000000000000     
   1.1556949301940700        0.0000000000000000     
   1.1752325459871100        0.0000000000000000     
   1.1969579701626201        0.0000000000000000     
   1.2211161919541600        0.0000000000000000     
   1.2479796343161700        0.0000000000000000     
   1.2778512259326300        0.0000000000000000     
   1.3110678172270800        0.0000000000000000     
   1.3480039788949600        0.0000000000000000     
   1.3890762257929701        0.0000000000000000     
   1.4347477138165201        0.0000000000000000     
   1.4855334627302801        0.0000000000000000     
   1.5420061638474500        0.0000000000000000     
   1.6048026380490199        0.0000000000000000     
   1.6746310169672800        0.0000000000000000     
   1.7522787283133201        0.0000000000000000     
   1.8386213753957501        0.0000000000000000     
   1.9346326109617100        0.0000000000000000     
   2.0413951167035300        0.0000000000000000     
   2.1601128122428199        0.0000000000000000     
   2.2921244312679798        0.0000000000000000     
   2.4389186179179099        0.0000000000000000     
   2.6021507136481201        0.0000000000000000     
   2.7836614238782000        0.0000000000000000     
   2.9854975749172801        0.0000000000000000     
   3.2099351952352801        0.0000000000000000     
   3.4595051813586100        0.0000000000000000     
   3.7370218378146300        0.0000000000000000     
   4.0456146129589499        0.0000000000000000     
   4.3887633885581696        0.0000000000000000     
   4.7703377210751201        0.0000000000000000     
   5.1946404771654002        0.0000000000000000     
   5.6664563554459697        0.0000000000000000     
   6.1911058416970199        0.0000000000000000     
   6.7745052059291000        0.0000000000000000     
   7.4232332178794103        0.0000000000000000     
   8.1446053332620796        0.0000000000000000     
   8.9467561873422596        0.0000000000000000     
   9.8387313260821507        0.0000000000000000     
   10.830589209276001        0.0000000000000000     
   11.933514635923499        0.0000000000000000     
   13.159944870896901        0.0000000000000000     
   14.523709895182300        0.0000000000000000     
   16.040188361244098        0.0000000000000000     
   17.726481012160200        0.0000000000000000     
   19.601603520110100        0.0000000000000000     
   21.686700918779302        0.0000000000000000     
   24.005286047753501        0.0000000000000000     
   26.583504697746100        0.0000000000000000     
   29.450430446601700        0.0000000000000000     
   32.638392510825597        0.0000000000000000     
   36.183340309696199        0.0000000000000000     
   40.125248853007797        0.0000000000000000     
   44.508569523846099        0.0000000000000000     
   49.382731339700499        0.0000000000000000     
   54.802698344439001        0.0000000000000000     
   60.829589416643898        0.0000000000000000     
   67.531367483644303        0.0000000000000000     
   74.983605913249306        0.0000000000000000     
   83.270340725483706        0.0000000000000000     
   92.485018234391106        0.0000000000000000     
   102.73154880609501        0.0000000000000000     
   114.12547861594200        0.0000000000000000     
   126.79529261817900        0.0000000000000000     
   140.88386342125099        0.0000000000000000     
   156.55006240713601        0.0000000000000000     
   173.97055126267099        0.0000000000000000     
   193.34177412529601        0.0000000000000000     
   214.88217280786799        0.0000000000000000     
   238.83465008277000        0.0000000000000000     
   265.46930880284901        0.0000000000000000     
   295.08649774715900        0.0000000000000000     
   328.02019853836498        0.0000000000000000     
   364.64179182475499        0.0000000000000000     
   405.36424519664803        0.0000000000000000     
   450.64677006271501        0.0000000000000000     
   501.00000000001802        0.0000000000000000     
   501.00000000001802       -1.7076335886396050E-006
   450.64677006271103       -1.7076340441691709E-006
   405.36424519664399       -1.7076345524596930E-006
   364.64179182475198       -1.7076351176682289E-006
   328.02019853836202       -1.7076357461684160E-006
   295.08649774715701       -1.7076364450476089E-006
   265.46930880284702       -1.7076372221867990E-006
   238.83465008276801       -1.7076380863494861E-006
   214.88217280786600       -1.7076390472804980E-006
   193.34177412529499       -1.7076401158158849E-006
   173.97055126266901       -1.7076413040051071E-006
   156.55006240713499       -1.7076426252469170E-006
   140.88386342125000       -1.7076440944404500E-006
   126.79529261817800       -1.7076457281532351E-006
   114.12547861594101       -1.7076475448080191E-006
   102.73154880609400       -1.7076495648905211E-006
   92.485018234390296       -1.7076518111804309E-006
   83.270340725482896       -1.7076543090082941E-006
   74.983605913248695       -1.7076570865411519E-006
   67.531367483643706       -1.7076601751001740E-006
   60.829589416643302       -1.7076636095138481E-006
   54.802698344438497       -1.7076674285107331E-006
   49.382731339700001       -1.7076716751561851E-006
   44.508569523845701       -1.7076763973379890E-006
   40.125248853007399       -1.7076816483063660E-006
   36.183340309695900       -1.7076874872744649E-006
   32.638392510825298       -1.7076939800860769E-006
   29.450430446601398       -1.7077011999581359E-006
   26.583504697745902       -1.7077092283063559E-006
   24.005286047753302       -1.7077181556633249E-006
   21.686700918779199       -1.7077280826994061E-006
   19.601603520109901       -1.7077391213579579E-006
   17.726481012160001       -1.7077513961176800E-006
   16.040188361243899       -1.7077650453963021E-006
   14.523709895182201       -1.7077802231114811E-006
   13.159944870896799       -1.7077971004164590E-006
   11.933514635923400       -1.7078158676300971E-006
   10.830589209275900       -1.7078367363830300E-006
   9.8387313260820708       -1.7078599420041411E-006
   8.9467561873421904       -1.7078857461742710E-006
   8.1446053332620192       -1.7079144398771019E-006
   7.4232332178793499       -1.7079463466804590E-006
   6.7745052059290503       -1.7079818263850630E-006
   6.1911058416969702       -1.7080212790818659E-006
   5.6664563554459297       -1.7080651496637231E-006
   5.1946404771653603       -1.7081139328422719E-006
   4.7703377210750899       -1.7081681787266130E-006
   4.3887633885581403       -1.7082284990266720E-006
   4.0456146129589197       -1.7082955739512220E-006
   3.7370218378145998       -1.7083701598783279E-006
   3.4595051813585900       -1.7084530978847391E-006
   3.2099351952352602       -1.7085453232303830E-006
   2.9854975749172601       -1.7086478759049299E-006
   2.7836614238781801       -1.7087619123553570E-006
   2.6021507136481099       -1.7088887185267579E-006
   2.4389186179179001       -1.7090297243634439E-006
   2.2921244312679701       -1.7091865199338801E-006
   2.1601128122428102       -1.7093608733612709E-006
   2.0413951167035198       -1.7095547507620070E-006
   1.9346326109617100       -1.7097703384167971E-006
   1.8386213753957501       -1.7100100674245199E-006
   1.7522787283133101       -1.7102766411167819E-006
   1.6746310169672700       -1.7105730655423520E-006
   1.6048026380490099       -1.7109026833652060E-006
   1.5420061638474500       -1.7112692115584700E-006
   1.4855334627302801       -1.7116767833192891E-006
   1.4347477138165301       -1.7121299946772939E-006
   1.3890762257929701       -1.7126339563222620E-006
   1.3480039788949700       -1.7131943512353940E-006
   1.3110678172270900       -1.7138174987740989E-006
   1.2778512259326400       -1.7145104259329550E-006
   1.2479796343161800       -1.7152809465844191E-006
   1.2211161919541800       -1.7161377495928519E-006
   1.1969579701626500       -1.7170904967954919E-006
   1.1752325459871400       -1.7181499319552720E-006
   1.1556949301941100       -1.7193280019140930E-006
   1.1381248046217600       -1.7206379913127491E-006
   1.1223240377370900       -1.7220946723967059E-006
   1.1081144503829401       -1.7237144715970229E-006
   1.0953358065203400       -1.7255156547648611E-006
   1.0838440063084500       -1.7275185331484789E-006
   1.0735094611462399       -1.7297456924353460E-006
   1.0642156323517600       -1.7322222474421940E-006
   1.0558577170003300       -1.7349761253251741E-006
   1.0483414661024300       -1.7380383805036130E-006
   1.0415821217940999       -1.7414435448486990E-006
   1.0355034615552099       -1.7452300170861760E-006
   1.0300369386775201       -1.7494404958038810E-006
   1.0251209092897999       -1.7541224609472660E-006
   1.0206999372237300       -1.7593287092326169E-006
   1.0167241688815400       -1.7651179495150431E-006
   1.0131487710562801       -1.7715554648257010E-006
   1.0099334253649299       -1.7787138485435350E-006
   1.0070418735936300       -1.7866738230027920E-006
   1.0044415088277301       -1.7955251497676330E-006
   1.0021030077561801       -1.8053676418390189E-006
   1.0000001278943000       -1.8120684222483299E-006
  0.99791349573022348       -2.3881437384423883E-005
  0.99567405507690554       -4.7786963230607329E-005
  0.99327154558332909       -7.3680496701047059E-005
  0.99069499532476224       -1.0173932798015475E-004
  0.98793283369674756       -1.3215856896248135E-004
  0.98497288075420364       -1.6515322059260638E-004
  0.98180234031333702       -2.0096050217555594E-004
  0.97840779759064678       -2.3984247266444674E-004
  0.97477522223560664       -2.8208897521308845E-004
  0.97088997769399399       -3.2802093664841166E-004
  0.96673683792727672       -3.7799405257000086E-004
  0.96230001258850939       -4.3240288603343946E-004
  0.95756318182722711       -4.9168540255973593E-004
  0.95250954195428572       -5.5632795575013064E-004
  0.94712186323813152       -6.2687072517716904E-004
  0.94138256112351248       -7.0391359037323079E-004
  0.93527378214844248       -7.8812240057845630E-004
  0.92877750579184892       -8.8023556803799342E-004